LAMMPS data file - one 2,2,4,6,6-pentamethylheptane molecule

38 atoms
2 atom types

-25.0000 25.0000 xlo xhi
-25.0000 25.0000 ylo yhi
-25.0000 25.0000 zlo zhi

Masses

1 1.0080
2 12.0107

Atoms # charge

   1 2 0.0   -0.135940   -0.439190   -0.986148
   2 2 0.0   -0.001588    0.000028   -2.461946
   3 2 0.0    1.086168    0.165551   -0.172906
   4 2 0.0   -1.136087   -0.661268   -3.261849
   5 2 0.0   -0.142497    1.524819   -2.589552
   6 2 0.0    1.335547   -0.439501   -3.079026
   7 2 0.0    0.563588    0.895785    1.138712
   8 2 0.0    2.059517   -1.023713    0.191263
   9 2 0.0    0.004023   -0.000148    2.267617
  10 2 0.0    1.105339   -0.687381    3.090770
  11 2 0.0   -1.021706   -1.046713    1.810575
  12 2 0.0   -0.720937    0.958046    3.228267
  13 1 0.0   -0.113139   -1.545603   -0.924000
  14 1 0.0   -1.087247   -0.044355   -0.575237
  15 1 0.0    1.630952    0.910871   -0.783659
  16 1 0.0   -1.012617   -1.763379   -3.210396
  17 1 0.0   -1.078116   -0.319448   -4.316670
  18 1 0.0   -2.108227   -0.363872   -2.816160
  19 1 0.0    0.712011    2.008664   -2.067884
  20 1 0.0   -1.101485    1.835455   -2.125586
  21 1 0.0   -0.133745    1.794285   -3.666638
  22 1 0.0    1.452448   -1.534322   -2.939945
  23 1 0.0    1.325004   -0.190415   -4.161328
  24 1 0.0    2.162376    0.102649   -2.573399
  25 1 0.0   -0.239422    1.593369    0.826794
  26 1 0.0    1.423425    1.457746    1.554784
  27 1 0.0    1.470269   -1.851870    0.636641
  28 1 0.0    2.817122   -0.654601    0.911283
  29 1 0.0    2.553062   -1.365699   -0.740809
  30 1 0.0    1.533865   -1.527648    2.505477
  31 1 0.0    0.653473   -1.077100    4.027354
  32 1 0.0    1.892649    0.056975    3.328920
  33 1 0.0   -1.473360   -1.512800    2.712366
  34 1 0.0   -0.506344   -1.820337    1.204104
  35 1 0.0   -1.807279   -0.541708    1.209328
  36 1 0.0   -1.091959    0.384534    4.103115
  37 1 0.0   -1.571211    1.427124    2.690458
  38 1 0.0   -0.004212    1.738330    3.560244
