LAMMPS data file - one H20 molecule and one CO2 molecule 

6 atoms
3 atom types

-50.00 50.00 xlo xhi
-50.00 50.00 ylo yhi
-50.00 50.00 zlo zhi

Masses

1 1.008
2 12.0107
3 15.9994

Atoms # charge

1  3  -0.3500   -25.000000   0.000000   1.162100
2  2   0.7000   -25.000000   0.000000   0.000000
3  3  -0.3500   -25.000000   0.000000  -1.162100
4  1   0.4170    24.243050   0.000000  50.085882
5  3  -0.8340    25.000000   0.000000  49.500000
6  1   0.4170    25.756950   0.000000  50.085882
