LAMMPS data file - two water molecules 

6 atoms
2 atom types

-50.00 50.00 xlo xhi
-50.00 50.00 ylo yhi
-50.00 50.00 zlo zhi

Masses

1 15.9994
2 1.008

Atoms # charge

1  2    0.4170  -25.756950    0.585882   -1.000000
2  1   -0.8340  -25.000000    0.000000   -1.000000
3  2    0.4170  -24.243050    0.585882   -1.000000
4  2    0.4170   24.243050    0.585882    1.000000
5  1   -0.8340   25.000000    0.000000    1.000000
6  2    0.4170   25.756950    0.585882    1.000000
