LAMMPS data file - 2,2,4,6,6-pentamethylheptane in oxygen

2250 atoms
3 atom types

-28.7383 28.7383 xlo xhi
-28.7383 28.7383 ylo yhi
-28.7383 28.7383 zlo zhi

Masses

1 1.0080
2 12.0107
3 15.9994

Atoms # charge

   1 2 0.0    6.359495  -13.240901   -0.665624
   2 2 0.0    6.692990  -11.794505   -1.132123
   3 2 0.0    7.452022  -14.329774   -0.877356
   4 2 0.0    5.434613  -10.929127   -0.915370
   5 2 0.0    7.842567  -11.205215   -0.290215
   6 2 0.0    7.073753  -11.745184   -2.624048
   7 2 0.0    7.770727  -15.155126    0.403336
   8 2 0.0    7.176361  -15.177257   -2.131786
   9 2 0.0    6.830746  -16.268249    0.962994
  10 2 0.0    6.931898  -17.572300    0.142261
  11 2 0.0    5.355061  -15.833844    1.045092
  12 2 0.0    7.322251  -16.582874    2.394320
  13 1 0.0    5.432533  -13.552262   -1.167306
  14 1 0.0    6.110495  -13.175072    0.401010
  15 1 0.0    8.396546  -13.802232   -1.073138
  16 1 0.0    4.592095  -11.296171   -1.514700
  17 1 0.0    5.619248   -9.886248   -1.201606
  18 1 0.0    5.123932  -10.936227    0.136901
  19 1 0.0    8.773057  -11.772347   -0.408705
  20 1 0.0    7.587186  -11.199819    0.776904
  21 1 0.0    8.050645  -10.170052   -0.587936
  22 1 0.0    6.273792  -12.154511   -3.253322
  23 1 0.0    7.249456  -10.710130   -2.942692
  24 1 0.0    7.989450  -12.310253   -2.831458
  25 1 0.0    7.923275  -14.420040    1.206817
  26 1 0.0    8.752542  -15.628135    0.252200
  27 1 0.0    6.205107  -15.681261   -2.076857
  28 1 0.0    7.945570  -15.944909   -2.276628
  29 1 0.0    7.161844  -14.549214   -3.028890
  30 1 0.0    6.534430  -17.464129   -0.869916
  31 1 0.0    6.366629  -18.374681    0.633008
  32 1 0.0    7.974093  -17.905255    0.059061
  33 1 0.0    4.751182  -16.628187    1.501991
  34 1 0.0    4.930199  -15.625306    0.057515
  35 1 0.0    5.232808  -14.934102    1.659397
  36 1 0.0    6.739721  -17.399763    2.837885
  37 1 0.0    7.226302  -15.708468    3.049624
  38 1 0.0    8.376542  -16.886680    2.394841
  39 2 0.0   11.681640   15.217441   10.650733
  40 2 0.0   11.107044   13.982422   11.402711
  41 2 0.0   10.962730   16.581931   10.863866
  42 2 0.0   11.912655   12.744656   10.957400
  43 2 0.0   11.272065   14.150898   12.926516
  44 2 0.0    9.620867   13.748139   11.071590
  45 2 0.0   11.923010   17.741002   11.260562
  46 2 0.0   10.009159   16.911249    9.701943
  47 2 0.0   12.876288   18.450143   10.248532
  48 2 0.0   12.116059   19.440516    9.339909
  49 2 0.0   13.672987   17.465992    9.371143
  50 2 0.0   13.881061   19.270770   11.088926
  51 1 0.0   11.702307   14.980027    9.577841
  52 1 0.0   12.732426   15.306278   10.954044
  53 1 0.0   10.325696   16.473031   11.753297
  54 1 0.0   11.806922   12.568608    9.879633
  55 1 0.0   11.569467   11.842428   11.478769
  56 1 0.0   12.981529   12.867875   11.172279
  57 1 0.0   10.712517   15.012328   13.309053
  58 1 0.0   12.326598   14.290043   13.195941
  59 1 0.0   10.907362   13.262616   13.457027
  60 1 0.0    9.468245   13.620007    9.992814
  61 1 0.0    9.253892   12.841341   11.568370
  62 1 0.0    8.991200   14.580537   11.405441
  63 1 0.0   12.545031   17.351663   12.079531
  64 1 0.0   11.309494   18.534036   11.713589
  65 1 0.0   10.536685   16.955030    8.742688
  66 1 0.0    9.506686   17.873825    9.853340
  67 1 0.0    9.233580   16.143840    9.607056
  68 1 0.0   11.430432   18.939174    8.652335
  69 1 0.0   12.823930   20.019732    8.733605
  70 1 0.0   11.531522   20.152512    9.936006
  71 1 0.0   14.370383   18.013878    8.724717
  72 1 0.0   13.021958   16.871044    8.721912
  73 1 0.0   14.265150   16.771845    9.978888
  74 1 0.0   14.556408   19.844260   10.442077
  75 1 0.0   14.496036   18.619580   11.722151
  76 1 0.0   13.363351   19.982116   11.744513
  77 2 0.0   12.893061    6.546783  -21.009914
  78 2 0.0   13.468989    5.115602  -21.212222
  79 2 0.0   12.149659    6.835457  -19.672711
  80 2 0.0   14.060782    5.044159  -22.634913
  81 2 0.0   14.597343    4.837406  -20.198801
  82 2 0.0   12.380793    4.033635  -21.076456
  83 2 0.0   12.653924    8.111865  -18.938237
  84 2 0.0   10.622198    6.756460  -19.841327
  85 2 0.0   12.301986    9.561508  -19.397036
  86 2 0.0   10.859596    9.953035  -19.008961
  87 2 0.0   12.499317    9.786138  -20.908226
  88 2 0.0   13.258855   10.509335  -18.638560
  89 1 0.0   12.222940    6.763529  -21.853625
  90 1 0.0   13.736532    7.240467  -21.116681
  91 1 0.0   12.416964    6.027559  -18.976573
  92 1 0.0   13.288123    5.212649  -23.395415
  93 1 0.0   14.509600    4.061535  -22.826305
  94 1 0.0   14.841689    5.801324  -22.778902
  95 1 0.0   14.237654    4.864061  -19.163715
  96 1 0.0   15.402748    5.576667  -20.292650
  97 1 0.0   15.034636    3.845507  -20.367343
  98 1 0.0   11.562467    4.199870  -21.787918
  99 1 0.0   12.798790    3.039512  -21.278294
 100 1 0.0   11.952187    4.008732  -20.068240
 101 1 0.0   13.750433    8.032967  -18.912777
 102 1 0.0   12.332717    8.034249  -17.888789
 103 1 0.0   10.258109    7.469287  -20.589450
 104 1 0.0   10.101435    6.963044  -18.898947
 105 1 0.0   10.319770    5.758199  -20.175179
 106 1 0.0   10.106672    9.380830  -19.556567
 107 1 0.0   10.684015   11.015087  -19.222017
 108 1 0.0   10.684332    9.797501  -17.937026
 109 1 0.0   12.298954   10.834206  -21.164772
 110 1 0.0   11.825719    9.166406  -21.509478
 111 1 0.0   13.526769    9.562894  -21.218638
 112 1 0.0   13.036053   11.558268  -18.869855
 113 1 0.0   14.304639   10.320893  -18.910663
 114 1 0.0   13.167777   10.380730  -17.552745
 115 2 0.0  -23.754398  -14.875877  -16.515612
 116 2 0.0  -23.379540  -15.571192  -15.175119
 117 2 0.0  -22.602259  -14.203429  -17.318408
 118 2 0.0  -24.686000  -16.066247  -14.521316
 119 2 0.0  -22.469570  -16.789111  -15.432466
 120 2 0.0  -22.677698  -14.604228  -14.202674
 121 2 0.0  -22.546639  -14.632716  -18.813590
 122 2 0.0  -22.559291  -12.682608  -17.088039
 123 2 0.0  -23.545502  -14.111831  -19.893764
 124 2 0.0  -23.215165  -12.669139  -20.334104
 125 2 0.0  -25.017496  -14.180569  -19.444762
 126 2 0.0  -23.374247  -15.023784  -21.129997
 127 1 0.0  -24.533799  -14.130710  -16.303126
 128 1 0.0  -24.237329  -15.639212  -17.138620
 129 1 0.0  -21.658253  -14.595162  -16.913246
 130 1 0.0  -25.359283  -15.229724  -14.296211
 131 1 0.0  -24.481274  -16.592988  -13.580971
 132 1 0.0  -25.223085  -16.758756  -15.181481
 133 1 0.0  -21.515566  -16.501737  -15.889394
 134 1 0.0  -22.956567  -17.511169  -16.099891
 135 1 0.0  -22.239159  -17.306896  -14.493155
 136 1 0.0  -23.301267  -13.726004  -13.994454
 137 1 0.0  -22.474152  -15.100742  -13.245707
 138 1 0.0  -21.718346  -14.251505  -14.597710
 139 1 0.0  -22.604740  -15.730817  -18.815433
 140 1 0.0  -21.538876  -14.394581  -19.185401
 141 1 0.0  -23.498795  -12.200287  -17.379706
 142 1 0.0  -21.749018  -12.211524  -17.656799
 143 1 0.0  -22.396795  -12.454978  -16.029161
 144 1 0.0  -23.380598  -11.938305  -19.538680
 145 1 0.0  -23.845266  -12.377799  -21.183968
 146 1 0.0  -22.168973  -12.584975  -20.654028
 147 1 0.0  -25.677958  -13.862929  -20.261648
 148 1 0.0  -25.218853  -13.529319  -18.587654
 149 1 0.0  -25.307233  -15.200511  -19.166157
 150 1 0.0  -24.010096  -14.685546  -21.957456
 151 1 0.0  -23.646560  -16.061260  -20.900420
 152 1 0.0  -22.336037  -15.021591  -21.484883
 153 2 0.0    6.983538   24.238024   19.832372
 154 2 0.0    5.678773   25.085028   19.865184
 155 2 0.0    6.850853   22.736010   19.444507
 156 2 0.0    6.046833   26.495371   20.370000
 157 2 0.0    5.080229   25.213072   18.449929
 158 2 0.0    4.625501   24.481613   20.813742
 159 2 0.0    7.825560   22.291953   18.315033
 160 2 0.0    6.852061   21.824975   20.684598
 161 2 0.0    9.351203   22.054137   18.542366
 162 2 0.0    9.623828   20.711488   19.254653
 163 2 0.0   10.034189   23.191479   19.325360
 164 2 0.0    9.999389   21.974835   17.141358
 165 1 0.0    7.463593   24.318984   20.817705
 166 1 0.0    7.662752   24.738409   19.130714
 167 1 0.0    5.861737   22.610869   18.981097
 168 1 0.0    6.456610   26.458781   21.387103
 169 1 0.0    5.166602   27.149973   20.387558
 170 1 0.0    6.798940   26.964983   19.723744
 171 1 0.0    4.787305   24.241004   18.036685
 172 1 0.0    5.799272   25.668477   17.757416
 173 1 0.0    4.184219   25.845912   18.463195
 174 1 0.0    5.018499   24.380141   21.832921
 175 1 0.0    3.738091   25.124893   20.863104
 176 1 0.0    4.293078   23.492305   20.479696
 177 1 0.0    7.725805   23.042010   17.517117
 178 1 0.0    7.428527   21.358971   17.887894
 179 1 0.0    7.768638   21.940759   21.273539
 180 1 0.0    6.761491   20.767911   20.408257
 181 1 0.0    6.013094   22.067857   21.345345
 182 1 0.0    9.263273   20.701805   20.286201
 183 1 0.0   10.701798   20.507950   19.281657
 184 1 0.0    9.143519   19.879750   18.724119
 185 1 0.0   11.112863   23.004279   19.401694
 186 1 0.0    9.644058   23.283775   20.344469
 187 1 0.0    9.903470   24.159384   18.827441
 188 1 0.0   11.071331   21.754522   17.217522
 189 1 0.0    9.889457   22.921052   16.597479
 190 1 0.0    9.539018   21.185196   16.534433
 191 2 0.0  -21.038026    9.689732   -7.857794
 192 2 0.0  -22.155194   10.680417   -7.420321
 193 2 0.0  -20.061731    9.182021   -6.756355
 194 2 0.0  -22.919930   11.115327   -8.687366
 195 2 0.0  -23.147480    9.989730   -6.463285
 196 2 0.0  -21.576333   11.935167   -6.739311
 197 2 0.0  -19.911735    7.633172   -6.717382
 198 2 0.0  -18.730096    9.952852   -6.775847
 199 2 0.0  -19.083196    6.824568   -7.764047
 200 2 0.0  -17.564700    6.940959   -7.509084
 201 2 0.0  -19.385171    7.225932   -9.220348
 202 2 0.0  -19.470631    5.339322   -7.581843
 203 1 0.0  -20.462214   10.164846   -8.664390
 204 1 0.0  -21.544254    8.833406   -8.320913
 205 1 0.0  -20.526380    9.410078   -5.786381
 206 1 0.0  -22.258473   11.635000   -9.391759
 207 1 0.0  -23.742779   11.796359   -8.436901
 208 1 0.0  -23.349475   10.250670   -9.208621
 209 1 0.0  -22.665440    9.664084   -5.534262
 210 1 0.0  -23.599319    9.107203   -6.933370
 211 1 0.0  -23.960335   10.672925   -6.187592
 212 1 0.0  -20.867445   12.454097   -7.396319
 213 1 0.0  -22.377218   12.642738   -6.490976
 214 1 0.0  -21.055892   11.691007   -5.806386
 215 1 0.0  -20.934691    7.229830   -6.726416
 216 1 0.0  -19.503855    7.368391   -5.730435
 217 1 0.0  -18.222478    9.863545   -7.742657
 218 1 0.0  -18.043670    9.591237   -6.001248
 219 1 0.0  -18.897170   11.020582   -6.598409
 220 1 0.0  -17.184286    7.949664   -7.687925
 221 1 0.0  -17.015115    6.260469   -8.171705
 222 1 0.0  -17.316961    6.667874   -6.475642
 223 1 0.0  -18.824715    6.585937   -9.913675
 224 1 0.0  -19.103075    8.263119   -9.430037
 225 1 0.0  -20.449585    7.113547   -9.457506
 226 1 0.0  -18.885927    4.696884   -8.251762
 227 1 0.0  -20.532555    5.174791   -7.801989
 228 1 0.0  -19.286715    5.003744   -6.553548
 229 2 0.0   21.697549    8.711247  -21.160840
 230 2 0.0   21.399761    9.251383  -22.589294
 231 2 0.0   20.614273    8.946769  -20.067618
 232 2 0.0   22.647179    8.992431  -23.458930
 233 2 0.0   20.204773    8.502922  -23.213320
 234 2 0.0   21.109261   10.764267  -22.582735
 235 2 0.0   20.215367    7.657168  -19.292534
 236 2 0.0   20.960342   10.149384  -19.172205
 237 2 0.0   21.114620    7.000333  -18.199037
 238 2 0.0   21.056326    7.775664  -16.864928
 239 2 0.0   22.584878    6.846327  -18.632301
 240 2 0.0   20.536741    5.590198  -17.940511
 241 1 0.0   22.651330    9.144231  -20.828103
 242 1 0.0   21.882559    7.634852  -21.266607
 243 1 0.0   19.685793    9.218734  -20.589844
 244 1 0.0   23.522240    9.525775  -23.067054
 245 1 0.0   22.485187    9.328536  -24.490632
 246 1 0.0   22.894258    7.923898  -23.491108
 247 1 0.0   19.280247    8.655477  -22.644578
 248 1 0.0   20.395826    7.423370  -23.258699
 249 1 0.0   20.020032    8.851597  -24.236937
 250 1 0.0   21.943425   11.328432  -22.147581
 251 1 0.0   20.958088   11.131865  -23.605359
 252 1 0.0   20.204835   11.004708  -22.012627
 253 1 0.0   20.018632    6.892718  -20.058116
 254 1 0.0   19.242030    7.848933  -18.816741
 255 1 0.0   21.924053   10.017203  -18.668061
 256 1 0.0   20.197389   10.310947  -18.401653
 257 1 0.0   21.031663   11.067147  -19.765559
 258 1 0.0   21.514216    8.765531  -16.933377
 259 1 0.0   21.587210    7.221830  -16.080322
 260 1 0.0   20.019343    7.908595  -16.531837
 261 1 0.0   23.156369    6.324241  -17.854334
 262 1 0.0   23.069138    7.813813  -18.801909
 263 1 0.0   22.674590    6.260320  -19.554472
 264 1 0.0   21.087608    5.081841  -17.139564
 265 1 0.0   20.597616    4.963914  -18.838998
 266 1 0.0   19.482816    5.641449  -17.639770
 267 2 0.0    3.279811   13.841585    4.132093
 268 2 0.0    2.599115   15.225980    4.334599
 269 2 0.0    4.549520   13.538650    4.980716
 270 2 0.0    1.439187   15.331544    3.323265
 271 2 0.0    2.018394   15.341092    5.758365
 272 2 0.0    3.577509   16.389513    4.085227
 273 2 0.0    4.487565   12.180274    5.738296
 274 2 0.0    5.840736   13.762372    4.174166
 275 2 0.0    4.677713   10.798077    5.038869
 276 2 0.0    6.162211   10.512518    4.724060
 277 2 0.0    3.848135   10.649515    3.749363
 278 2 0.0    4.203205    9.724949    6.045098
 279 1 0.0    3.521068   13.736746    3.064998
 280 1 0.0    2.513140   13.083933    4.337569
 281 1 0.0    4.573408   14.275804    5.796064
 282 1 0.0    1.806425   15.278659    2.290747
 283 1 0.0    0.900878   16.280531    3.438438
 284 1 0.0    0.715587   14.518573    3.462300
 285 1 0.0    2.797428   15.283208    6.527291
 286 1 0.0    1.293934   14.540700    5.954634
 287 1 0.0    1.499978   16.298925    5.889879
 288 1 0.0    4.007138   16.339913    3.077045
 289 1 0.0    3.061635   17.353293    4.178740
 290 1 0.0    4.403803   16.390614    4.804990
 291 1 0.0    3.511480   12.160328    6.244323
 292 1 0.0    5.232920   12.221783    6.546543
 293 1 0.0    5.875759   13.131459    3.279128
 294 1 0.0    6.732899   13.545478    4.773293
 295 1 0.0    5.912527   14.801942    3.837142
 296 1 0.0    6.566361   11.181318    3.960154
 297 1 0.0    6.281881    9.485106    4.357617
 298 1 0.0    6.782498   10.617234    5.623076
 299 1 0.0    3.970166    9.640848    3.334505
 300 1 0.0    4.155072   11.361835    2.976256
 301 1 0.0    2.778679   10.799670    3.937960
 302 1 0.0    4.356503    8.715864    5.643049
 303 1 0.0    3.135990    9.836547    6.272723
 304 1 0.0    4.755533    9.794611    6.990567
 305 2 0.0   -8.321027    6.927264   -1.827307
 306 2 0.0   -9.571016    7.162563   -2.723445
 307 2 0.0   -8.548806    6.850701   -0.289014
 308 2 0.0   -9.084706    7.302807   -4.180568
 309 2 0.0  -10.530486    5.958243   -2.642012
 310 2 0.0  -10.326474    8.446373   -2.330547
 311 2 0.0   -7.914522    5.594727    0.376692
 312 2 0.0   -8.209241    8.181807    0.404285
 313 2 0.0   -6.383498    5.443400    0.639156
 314 2 0.0   -5.924006    6.274927    1.856453
 315 2 0.0   -5.517870    5.809893   -0.581280
 316 2 0.0   -6.138194    3.954942    0.976170
 317 1 0.0   -7.592601    7.719844   -2.048899
 318 1 0.0   -7.858559    5.995093   -2.175477
 319 1 0.0   -9.625988    6.696651   -0.131833
 320 1 0.0   -8.414963    8.164316   -4.294590
 321 1 0.0   -9.929492    7.443031   -4.866346
 322 1 0.0   -8.536978    6.408958   -4.504415
 323 1 0.0  -10.921115    5.810122   -1.628621
 324 1 0.0  -10.027055    5.031772   -2.945654
 325 1 0.0  -11.391553    6.102318   -3.306317
 326 1 0.0   -9.672112    9.325386   -2.381699
 327 1 0.0  -11.169532    8.620610   -3.010720
 328 1 0.0  -10.733650    8.386857   -1.314925
 329 1 0.0   -8.228829    4.736767   -0.235127
 330 1 0.0   -8.409264    5.454572    1.349382
 331 1 0.0   -7.167907    8.475893    0.232508
 332 1 0.0   -8.367753    8.123974    1.487559
 333 1 0.0   -8.838984    8.991216    0.019933
 334 1 0.0   -5.992052    7.351293    1.680409
 335 1 0.0   -4.878263    6.047312    2.098920
 336 1 0.0   -6.527216    6.041696    2.742846
 337 1 0.0   -4.458159    5.626097   -0.363016
 338 1 0.0   -5.618085    6.864986   -0.857033
 339 1 0.0   -5.781544    5.207636   -1.458556
 340 1 0.0   -5.084903    3.778424    1.226802
 341 1 0.0   -6.394218    3.307235    0.128736
 342 1 0.0   -6.743010    3.636758    1.834532
 343 2 0.0  -12.167686    7.713290    5.463630
 344 2 0.0  -10.791865    7.710354    6.190275
 345 2 0.0  -13.197727    6.622316    5.879421
 346 2 0.0   -9.916440    8.803090    5.543026
 347 2 0.0  -10.967798    8.046403    7.684837
 348 2 0.0  -10.071480    6.355711    6.051560
 349 2 0.0  -14.605001    7.189254    6.227432
 350 2 0.0  -13.210178    5.443778    4.890125
 351 2 0.0  -15.623156    7.679169    5.150785
 352 2 0.0  -16.316230    6.498945    4.435870
 353 2 0.0  -14.993884    8.611020    4.097807
 354 2 0.0  -16.716487    8.470250    5.904495
 355 1 0.0  -11.979090    7.643587    4.383139
 356 1 0.0  -12.603121    8.707620    5.624081
 357 1 0.0  -12.854721    6.206293    6.837560
 358 1 0.0   -9.742335    8.594641    4.480016
 359 1 0.0   -8.938278    8.867716    6.035612
 360 1 0.0  -10.392612    9.788857    5.616317
 361 1 0.0  -11.575590    7.298342    8.206837
 362 1 0.0  -11.452630    9.022074    7.815205
 363 1 0.0   -9.995137    8.087806    8.190516
 364 1 0.0   -9.926354    6.087505    4.997769
 365 1 0.0   -9.081509    6.395904    6.522818
 366 1 0.0  -10.629240    5.544563    6.532980
 367 1 0.0  -14.431408    8.025966    6.919518
 368 1 0.0  -15.128283    6.424975    6.821226
 369 1 0.0  -13.456311    5.768864    3.873213
 370 1 0.0  -13.938392    4.678667    5.183822
 371 1 0.0  -12.226310    4.964832    4.844745
 372 1 0.0  -15.628146    5.921625    3.813433
 373 1 0.0  -17.118013    6.867914    3.783810
 374 1 0.0  -16.769676    5.811143    5.160623
 375 1 0.0  -15.763678    8.974439    3.405166
 376 1 0.0  -14.228750    8.103172    3.501180
 377 1 0.0  -14.529162    9.488794    4.561918
 378 1 0.0  -17.502790    8.804549    5.216478
 379 1 0.0  -16.299271    9.358852    6.393917
 380 1 0.0  -17.190685    7.854098    6.678653
 381 2 0.0   19.394645   23.112295    4.488021
 382 2 0.0   20.306724   24.363250    4.643345
 383 2 0.0   18.105153   23.270244    3.629909
 384 2 0.0   21.451546   23.992979    5.608568
 385 2 0.0   20.920774   24.758047    3.285157
 386 2 0.0   19.539612   25.564985    5.226976
 387 2 0.0   17.944018   22.176912    2.533729
 388 2 0.0   16.859332   23.484042    4.507424
 389 2 0.0   17.507705   20.710447    2.841843
 390 2 0.0   15.991471   20.607234    3.115275
 391 2 0.0   18.279032   20.080395    4.017081
 392 2 0.0   17.805928   19.884440    1.569823
 393 1 0.0   19.122285   22.765820    5.494830
 394 1 0.0   20.022456   22.319371    4.062386
 395 1 0.0   18.221352   24.193084    3.043715
 396 1 0.0   21.064595   23.726502    6.600038
 397 1 0.0   22.147016   24.831919    5.735530
 398 1 0.0   22.026369   23.137012    5.233404
 399 1 0.0   20.155530   25.043282    2.554040
 400 1 0.0   21.499506   23.929309    2.858244
 401 1 0.0   21.598430   25.613166    3.399394
 402 1 0.0   19.092157   25.318800    6.197877
 403 1 0.0   20.215194   26.415911    5.379475
 404 1 0.0   18.737211   25.900883    4.560531
 405 1 0.0   18.909865   22.128673    2.010261
 406 1 0.0   17.229682   22.561234    1.790387
 407 1 0.0   16.702166   22.650388    5.200743
 408 1 0.0   15.952618   23.591967    3.900652
 409 1 0.0   16.962434   24.390467    5.113401
 410 1 0.0   15.696681   21.103521    4.043168
 411 1 0.0   15.690894   19.554935    3.195881
 412 1 0.0   15.412623   21.054703    2.297560
 413 1 0.0   17.978602   19.033189    4.149407
 414 1 0.0   18.087344   20.598911    4.962439
 415 1 0.0   19.361182   20.091775    3.841944
 416 1 0.0   17.474830   18.845613    1.690697
 417 1 0.0   18.879840   19.870199    1.346827
 418 1 0.0   17.288704   20.299674    0.695816
 419 2 0.0   -2.554892    6.472045   -8.915671
 420 2 0.0   -1.122236    6.642132   -8.333031
 421 2 0.0   -3.259089    5.101538   -8.692274
 422 2 0.0   -0.600367    8.027543   -8.766230
 423 2 0.0   -1.154462    6.591696   -6.792247
 424 2 0.0   -0.155644    5.564684   -8.860345
 425 2 0.0   -4.691951    5.222958   -8.096357
 426 2 0.0   -3.157964    4.199642   -9.934920
 427 2 0.0   -5.932062    5.675885   -8.928707
 428 2 0.0   -6.450067    4.548665   -9.848180
 429 2 0.0   -5.670692    6.938332   -9.771920
 430 2 0.0   -7.052416    5.996429   -7.913170
 431 1 0.0   -2.509272    6.687141   -9.992491
 432 1 0.0   -3.165925    7.272602   -8.480022
 433 1 0.0   -2.704104    4.581755   -7.898186
 434 1 0.0   -0.536637    8.104116   -9.858855
 435 1 0.0    0.400568    8.216803   -8.358887
 436 1 0.0   -1.261180    8.829196   -8.413348
 437 1 0.0   -1.508863    5.624025   -6.418748
 438 1 0.0   -1.813480    7.369270   -6.385964
 439 1 0.0   -0.152042    6.754814   -6.377465
 440 1 0.0   -0.105860    5.575753   -9.956187
 441 1 0.0    0.858938    5.738331   -8.480593
 442 1 0.0   -0.453883    4.558244   -8.545775
 443 1 0.0   -4.605912    5.905181   -7.238234
 444 1 0.0   -4.951112    4.244644   -7.664761
 445 1 0.0   -3.608102    4.669563  -10.816351
 446 1 0.0   -3.657172    3.236627   -9.775719
 447 1 0.0   -2.110779    3.993491  -10.180586
 448 1 0.0   -5.748767    4.304079  -10.649766
 449 1 0.0   -7.395567    4.846729  -10.318673
 450 1 0.0   -6.639689    3.630941   -9.277410
 451 1 0.0   -6.589774    7.247698  -10.285718
 452 1 0.0   -4.906135    6.772375  -10.538220
 453 1 0.0   -5.343972    7.779205   -9.148993
 454 1 0.0   -7.980585    6.273271   -8.428203
 455 1 0.0   -6.770387    6.830584   -7.259059
 456 1 0.0   -7.270488    5.130699   -7.275373
 457 2 0.0  -12.530102  -24.423096   -6.842651
 458 2 0.0  -13.368600  -25.190021   -7.905502
 459 2 0.0  -12.050702  -22.988121   -7.210227
 460 2 0.0  -13.634528  -26.608179   -7.360080
 461 2 0.0  -14.724306  -24.491549   -8.133093
 462 2 0.0  -12.623035  -25.310438   -9.248217
 463 2 0.0  -12.387916  -21.918897   -6.130413
 464 2 0.0  -10.586144  -22.980022   -7.682263
 465 2 0.0  -11.612513  -21.786251   -4.782460
 466 2 0.0  -10.239364  -21.106342   -4.973693
 467 2 0.0  -11.415771  -23.131876   -4.058804
 468 2 0.0  -12.461002  -20.868162   -3.873374
 469 1 0.0  -11.659898  -25.043770   -6.586924
 470 1 0.0  -13.141840  -24.382526   -5.932612
 471 1 0.0  -12.646588  -22.662867   -8.075033
 472 1 0.0  -12.696817  -27.155929   -7.203807
 473 1 0.0  -14.249300  -27.190100   -8.057964
 474 1 0.0  -14.163915  -26.571737   -6.399732
 475 1 0.0  -14.603906  -23.477655   -8.531858
 476 1 0.0  -15.292080  -24.418072   -7.197024
 477 1 0.0  -15.335351  -25.054130   -8.849767
 478 1 0.0  -11.653344  -25.807794   -9.122493
 479 1 0.0  -13.209050  -25.902232   -9.962436
 480 1 0.0  -12.443658  -24.331029   -9.705823
 481 1 0.0  -13.450329  -22.061316   -5.885055
 482 1 0.0  -12.331681  -20.933474   -6.616538
 483 1 0.0   -9.909660  -23.374936   -6.916246
 484 1 0.0  -10.250525  -21.968020   -7.937532
 485 1 0.0  -10.462111  -23.604901   -8.573098
 486 1 0.0   -9.541555  -21.721659   -5.546957
 487 1 0.0   -9.776095  -20.905473   -3.999419
 488 1 0.0  -10.344606  -20.146057   -5.494009
 489 1 0.0  -10.922820  -22.973140   -3.091225
 490 1 0.0  -10.792542  -23.823727   -4.635200
 491 1 0.0  -12.373347  -23.627965   -3.861835
 492 1 0.0  -11.952125  -20.682895   -2.919373
 493 1 0.0  -13.436112  -21.318733   -3.651197
 494 1 0.0  -12.642646  -19.896076   -4.348647
 495 2 0.0   15.703762   -3.495155   11.951484
 496 2 0.0   17.060629   -4.237946   12.119053
 497 2 0.0   14.514092   -4.305423   11.357984
 498 2 0.0   18.098316   -3.213081   12.621278
 499 2 0.0   16.937010   -5.362212   13.167071
 500 2 0.0   17.559097   -4.831685   10.787792
 501 2 0.0   13.212939   -4.222044   12.208278
 502 2 0.0   14.318148   -4.015189    9.859591
 503 2 0.0   12.286569   -2.966362   12.238672
 504 2 0.0   11.417711   -2.862081   10.966432
 505 2 0.0   13.056601   -1.646889   12.436499
 506 2 0.0   11.329972   -3.152211   13.438523
 507 1 0.0   15.881037   -2.603119   11.334449
 508 1 0.0   15.429946   -3.117765   12.944783
 509 1 0.0   14.785576   -5.368718   11.424760
 510 1 0.0   18.239412   -2.402475   11.895493
 511 1 0.0   19.073546   -3.687868   12.785965
 512 1 0.0   17.783084   -2.760740   13.569890
 513 1 0.0   16.218098   -6.131844   12.863225
 514 1 0.0   16.611532   -4.963785   14.136251
 515 1 0.0   17.903129   -5.859239   13.318975
 516 1 0.0   17.662154   -4.055826   10.019097
 517 1 0.0   18.542183   -5.300697   10.919370
 518 1 0.0   16.879739   -5.600562   10.402924
 519 1 0.0   13.514770   -4.432168   13.244594
 520 1 0.0   12.574797   -5.068735   11.914292
 521 1 0.0   14.128126   -2.952519    9.672518
 522 1 0.0   13.478052   -4.584805    9.445190
 523 1 0.0   15.214460   -4.285902    9.291451
 524 1 0.0   12.007512   -2.654746   10.070143
 525 1 0.0   10.685196   -2.051886   11.072184
 526 1 0.0   10.860329   -3.791188   10.793117
 527 1 0.0   12.354878   -0.806582   12.513164
 528 1 0.0   13.733378   -1.434389   11.602160
 529 1 0.0   13.652817   -1.661582   13.356370
 530 1 0.0   10.607353   -2.328762   13.494668
 531 1 0.0   11.880930   -3.179933   14.386622
 532 1 0.0   10.763281   -4.087913   13.353950
 533 2 0.0  -13.611931  -16.158660    4.960486
 534 2 0.0  -12.114571  -16.559830    5.094197
 535 2 0.0  -14.674183  -17.195473    5.430303
 536 2 0.0  -11.268039  -15.428027    4.476313
 537 2 0.0  -11.723861  -16.708105    6.578434
 538 2 0.0  -11.802221  -17.871547    4.349156
 539 2 0.0  -15.730196  -16.609608    6.412419
 540 2 0.0  -15.267742  -17.979422    4.246697
 541 2 0.0  -16.899812  -15.680252    5.960624
 542 2 0.0  -18.032694  -16.474168    5.274578
 543 2 0.0  -16.445621  -14.538785    5.031184
 544 2 0.0  -17.486788  -15.052694    7.245493
 545 1 0.0  -13.798685  -15.896133    3.909728
 546 1 0.0  -13.736594  -15.225893    5.524795
 547 1 0.0  -14.147046  -17.937144    6.047402
 548 1 0.0  -11.493943  -15.299675    3.410364
 549 1 0.0  -10.196039  -15.642840    4.567359
 550 1 0.0  -11.459928  -14.470220    4.975944
 551 1 0.0  -12.286033  -17.507484    7.074867
 552 1 0.0  -11.907804  -15.777252    7.129495
 553 1 0.0  -10.658002  -16.948307    6.677139
 554 1 0.0  -12.065375  -17.798839    3.286643
 555 1 0.0  -10.731680  -18.103776    4.410439
 556 1 0.0  -12.345556  -18.722905    4.774361
 557 1 0.0  -15.160431  -16.069209    7.182187
 558 1 0.0  -16.195359  -17.457486    6.937075
 559 1 0.0  -15.745033  -17.315515    3.517455
 560 1 0.0  -16.017413  -18.706540    4.580229
 561 1 0.0  -14.485016  -18.530689    3.714824
 562 1 0.0  -17.728483  -16.895685    4.313347
 563 1 0.0  -18.895123  -15.821580    5.088779
 564 1 0.0  -18.374516  -17.300988    5.909777
 565 1 0.0  -17.292804  -13.882037    4.795875
 566 1 0.0  -16.046546  -14.912586    4.082334
 567 1 0.0  -15.671316  -13.920403    5.500125
 568 1 0.0  -18.354280  -14.422821    7.012866
 569 1 0.0  -16.745686  -14.426731    7.757503
 570 1 0.0  -17.815747  -15.825826    7.951101
 571 2 0.0  -12.684411    5.082465  -13.732838
 572 2 0.0  -13.585227    3.995009  -14.386193
 573 2 0.0  -11.256598    5.276442  -14.322598
 574 2 0.0  -14.894591    3.919699  -13.574239
 575 2 0.0  -13.932011    4.379687  -15.838557
 576 2 0.0  -12.915169    2.607920  -14.370125
 577 2 0.0  -10.918230    6.755201  -14.671493
 578 2 0.0  -10.188987    4.558512  -13.478443
 579 2 0.0  -10.574177    7.833416  -13.596828
 580 2 0.0   -9.136098    7.670177  -13.058624
 581 2 0.0  -11.559981    7.848857  -12.413170
 582 2 0.0  -10.649882    9.204393  -14.306721
 583 1 0.0  -12.608074    4.857698  -12.659739
 584 1 0.0  -13.238661    6.027228  -13.798195
 585 1 0.0  -11.245498    4.781817  -15.304424
 586 1 0.0  -14.701273    3.624819  -12.535284
 587 1 0.0  -15.585251    3.185414  -14.007175
 588 1 0.0  -15.407233    4.889605  -13.556132
 589 1 0.0  -13.040293    4.440393  -16.473100
 590 1 0.0  -14.438477    5.352247  -15.878670
 591 1 0.0  -14.602517    3.636440  -16.287445
 592 1 0.0  -12.658222    2.301188  -13.348673
 593 1 0.0  -13.590736    1.849018  -14.784153
 594 1 0.0  -11.997819    2.589765  -14.969258
 595 1 0.0  -11.772421    7.132035  -15.252493
 596 1 0.0  -10.072395    6.740395  -15.374971
 597 1 0.0  -10.177753    4.919536  -12.444081
 598 1 0.0   -9.184451    4.699307  -13.894418
 599 1 0.0  -10.384004    3.481494  -13.440443
 600 1 0.0   -9.006999    6.755894  -12.474156
 601 1 0.0   -8.875740    8.515014  -12.408516
 602 1 0.0   -8.408568    7.648374  -13.879708
 603 1 0.0  -11.309157    8.663473  -11.721870
 604 1 0.0  -11.534991    6.914533  -11.842451
 605 1 0.0  -12.591223    8.009109  -12.748894
 606 1 0.0  -10.366654   10.015160  -13.624199
 607 1 0.0  -11.664742    9.410034  -14.668643
 608 1 0.0   -9.973215    9.243230  -15.169532
 609 2 0.0   -1.475151  -10.872186    7.176335
 610 2 0.0   -0.576966  -12.136066    7.305844
 611 2 0.0   -2.139172  -10.606094    5.793452
 612 2 0.0    0.043323  -12.128835    8.718134
 613 2 0.0   -1.419443  -13.417882    7.148433
 614 2 0.0    0.561387  -12.141032    6.267874
 615 2 0.0   -3.673329  -10.355070    5.872832
 616 2 0.0   -1.361063   -9.556874    4.980129
 617 2 0.0   -4.299149   -9.019148    6.382229
 618 2 0.0   -4.208453   -7.900640    5.321522
 619 2 0.0   -3.677513   -8.519768    7.700289
 620 2 0.0   -5.798525   -9.300511    6.631156
 621 1 0.0   -0.873478   -9.999197    7.465764
 622 1 0.0   -2.253451  -10.962510    7.944535
 623 1 0.0   -2.070884  -11.541557    5.219862
 624 1 0.0    0.673861  -11.243980    8.870478
 625 1 0.0    0.668083  -13.016225    8.878855
 626 1 0.0   -0.733292  -12.122826    9.493170
 627 1 0.0   -1.881743  -13.488233    6.157061
 628 1 0.0   -2.221961  -13.456535    7.895737
 629 1 0.0   -0.796399  -14.310812    7.282558
 630 1 0.0    1.184252  -11.242197    6.355093
 631 1 0.0    1.212917  -13.011446    6.414941
 632 1 0.0    0.179346  -12.189167    5.241936
 633 1 0.0   -4.080842  -11.165970    6.493781